ITEM: TIMESTEP
0
ITEM: NUMBER OF ATOMS
1280
ITEM: BOX BOUNDS xy xz yz pp pp pp
-8.2074228440593006e-02 2.4111153935633137e+01 -8.2074228440593006e-02
0.0000000000000000e+00 3.1555311190643611e+01 1.7362809563313861e-01
0.0000000000000000e+00 1.0322390132510603e+02 2.0472654352736916e-01
ITEM: ATOMS id mass type element xu yu zu
1 6.94 1 Li 2.32898 0.335733 47.3032
2 6.94 1 Li 3.64558 7.61642 42.9521
3 6.94 1 Li 3.84899 4.25179 43.0095
4 6.94 1 Li 2.50268 3.68898 47.3643
5 6.94 1 Li 5.73114 0.444779 45.0792
6 6.94 1 Li 0.44796 4.38536 45.2212
7 6.94 1 Li 0.646911 -0.336803 58.424
8 6.94 1 Li 2.43638 7.04011 55.3487
9 6.94 1 Li 5.23284 7.6842 49.5224
10 6.94 1 Li 4.85868 -3.34548 56.1628
11 6.94 1 Li 2.65962 -0.202895 51.9582
12 6.94 1 Li 3.66892 2.49423 59.3322
13 6.94 1 Li 1.91744 4.07103 53.7535
14 6.94 1 Li 5.55003 4.39664 49.4103
15 6.94 1 Li -0.0712495 1.39464 54.267
16 6.94 1 Li 6.58548 -0.848619 61.1228
17 6.94 1 Li 3.60409 3.60998 51.5697
18 6.94 1 Li 0.807178 4.40776 58.326
19 6.94 1 Li 8.31336 0.335733 47.3032
20 6.94 1 Li 9.62996 7.61642 42.9521
21 6.94 1 Li 9.83337 4.25179 43.0095
22 6.94 1 Li 8.48706 3.68898 47.3643
23 6.94 1 Li 11.7155 0.444779 45.0792
24 6.94 1 Li 6.43234 4.38536 45.2212
25 6.94 1 Li 10.2126 1.06107 58.5818
26 6.94 1 Li 8.1364 7.19103 55.0319
27 6.94 1 Li 11.2681 7.68119 49.5086
28 6.94 1 Li 9.08906 -1.79947 55.2314
29 6.94 1 Li 10.7283 4.21102 56.3317
30 6.94 1 Li 7.67057 4.18166 58.2378
31 6.94 1 Li 7.88718 4.03728 53.7289
32 6.94 1 Li 11.5255 4.36192 49.4184
33 6.94 1 Li 8.72402 -0.193685 51.8861
34 6.94 1 Li 7.78512 -1.07413 57.8126
35 6.94 1 Li 9.57652 3.64718 51.5739
36 6.94 1 Li 4.88987 4.20236 56.5081
37 6.94 1 Li 2.30846 8.17338 47.3032
38 6.94 1 Li 3.62506 15.4541 42.9521
39 6.94 1 Li 3.82847 12.0894 43.0095
40 6.94 1 Li 2.48216 11.5266 47.3643
41 6.94 1 Li 5.71062 8.28242 45.0792
42 6.94 1 Li 0.427442 12.223 45.2212
43 6.94 1 Li 0.727226 7.44164 58.9481
44 6.94 1 Li 5.98148 17.1941 54.1577
45 6.94 1 Li 5.28342 15.5355 49.5405
46 6.94 1 Li -0.912719 9.88463 52.6908
47 6.94 1 Li 3.5283 15.2734 56.0001
48 6.94 1 Li 3.70626 9.37019 59.462
49 6.94 1 Li 0.975286 11.6745 54.4437
50 6.94 1 Li 5.29789 12.151 49.4316
51 6.94 1 Li 2.55502 7.626 51.8422
52 6.94 1 Li 5.59824 8.38487 57.3939
53 6.94 1 Li 2.6329 12.0799 51.7903
54 6.94 1 Li 1.37957 12.1894 59.3597
55 6.94 1 Li 8.29284 8.17338 47.3032
56 6.94 1 Li 9.60944 15.4541 42.9521
57 6.94 1 Li 9.81285 12.0894 43.0095
58 6.94 1 Li 8.46654 11.5266 47.3643
59 6.94 1 Li 11.695 8.28242 45.0792
60 6.94 1 Li 6.41182 12.223 45.2212
61 6.94 1 Li 7.6277 7.68574 59.4078
62 6.94 1 Li 5.55697 16.4441 58.0335
63 6.94 1 Li 11.2804 15.5268 49.5282
64 6.94 1 Li 5.06698 9.74716 52.7234
65 6.94 1 Li 11.132 12.1745 57.3563
66 6.94 1 Li 9.85369 10.0017 59.0764
67 6.94 1 Li 6.9042 11.5185 54.0931
68 6.94 1 Li 11.3295 12.131 49.4081
69 6.94 1 Li 8.53007 7.61362 51.7359
70 6.94 1 Li 11.2588 8.49132 55.6942
71 6.94 1 Li 8.72858 12.0311 51.7185
72 6.94 1 Li 6.26516 12.2773 58.819
73 30.9738 2 P 3.9999 5.95292 46.319
74 30.9738 2 P 2.16368 2.03769 44.0062
75 30.9738 2 P 1.06557 2.08223 50.5415
76 30.9738 2 P 5.07636 6.03028 52.9162
77 30.9738 2 P 4.21559 6.0088 58.8942
78 30.9738 2 P 1.92881 1.95273 56.843
79 30.9738 2 P 9.98428 5.95292 46.319
80 30.9738 2 P 8.14806 2.03769 44.0062
81 30.9738 2 P 7.07768 2.09713 50.4909
82 30.9738 2 P 11.0651 6.10283 52.9774
83 30.9738 2 P 10.0134 6.32079 58.2879
84 30.9738 2 P 8.1683 1.70857 56.5058
85 30.9738 2 P 3.97938 13.7906 46.319
86 30.9738 2 P 2.14316 9.87533 44.0062
87 30.9738 2 P 0.980822 9.91109 50.4257
88 30.9738 2 P 5.18703 13.7142 52.8195
89 30.9738 2 P 4.06783 14.3762 59.7344
90 30.9738 2 P 2.13757 10.409 57.1079
91 30.9738 2 P 9.96376 13.7906 46.319
92 30.9738 2 P 8.12754 9.87533 44.0062
93 30.9738 2 P 6.94087 9.92129 50.3908
94 30.9738 2 P 11.1899 13.695 52.8125
95 30.9738 2 P 10.0454 13.8355 59.5129
96 30.9738 2 P 7.9394 10.4085 56.7664
97 32.06 3 S 1.96784 5.9217 46.5198
98 32.06 3 S 4.19508 2.00913 43.8172
99 32.06 3 S 4.72458 6.02005 44.3753
100 32.06 3 S 1.42294 2.10163 45.9426
101 32.06 3 S 4.67005 7.69336 47.1791
102 32.06 3 S 1.36713 0.329131 43.2116
103 32.06 3 S 1.49831 3.77357 43.1364
104 32.06 3 S 4.80544 4.24036 47.0942
105 32.06 3 S 5.04203 2.13905 50.2736
106 32.06 3 S 1.10886 6.24289 53.2606
107 32.06 3 S 2.3561 5.77544 59.69
108 32.06 3 S 3.98543 1.97612 56.6209
109 32.06 3 S 1.68273 2.00489 52.5208
110 32.06 3 S 4.39615 5.94293 50.9593
111 32.06 3 S 4.23989 6.47274 56.8749
112 32.06 3 S 1.3496 2.03836 58.8023
113 32.06 3 S 1.74487 0.338748 49.7046
114 32.06 3 S 4.22504 7.6989 53.7488
115 32.06 3 S 5.18966 7.56105 59.8543
116 32.06 3 S 1.25566 0.228574 55.9988
117 32.06 3 S 4.394 4.3207 53.8239
118 32.06 3 S 1.87822 3.78303 49.7441
119 32.06 3 S 1.19741 3.65006 55.9583
120 32.06 3 S 5.31012 4.28762 59.137
121 32.06 3 S 7.95222 5.9217 46.5198
122 32.06 3 S 10.1795 2.00913 43.8172
123 32.06 3 S 10.709 6.02005 44.3753
124 32.06 3 S 7.40732 2.10163 45.9426
125 32.06 3 S 10.6544 7.69336 47.1791
126 32.06 3 S 7.35151 0.329131 43.2116
127 32.06 3 S 7.48269 3.77357 43.1364
128 32.06 3 S 10.7898 4.24036 47.0942
129 32.06 3 S 11.0001 2.12303 50.2995
130 32.06 3 S 7.11506 6.11808 53.0527
131 32.06 3 S 8.16661 6.50865 57.3962
132 32.06 3 S 10.1637 1.89354 56.194
133 32.06 3 S 7.74495 2.00696 52.4503
134 32.06 3 S 10.4514 5.97549 51.004
135 32.06 3 S 11.5749 6.55753 56.9613
136 32.06 3 S 7.83495 1.57309 58.5357
137 32.06 3 S 7.73073 0.341922 49.6597
138 32.06 3 S 10.1367 7.8201 53.6911
139 32.06 3 S 10.1882 7.62621 59.8497
140 32.06 3 S 7.32972 0.0662476 55.6344
141 32.06 3 S 10.3233 4.42274 53.8768
142 32.06 3 S 7.88004 3.80799 49.7054
143 32.06 3 S 7.14731 3.3637 55.8326
144 32.06 3 S 10.1912 4.39203 58.8876
145 32.06 3 S 1.94732 13.7593 46.5198
146 32.06 3 S 4.17456 9.84678 43.8172
147 32.06 3 S 4.70407 13.8577 44.3753
148 32.06 3 S 1.40242 9.93927 45.9426
149 32.06 3 S 4.64954 15.531 47.1791
150 32.06 3 S 1.34661 8.16678 43.2116
151 32.06 3 S 1.47779 11.6112 43.1364
152 32.06 3 S 4.78493 12.078 47.0942
153 32.06 3 S 4.88091 9.92816 50.3034
154 32.06 3 S 1.23829 13.6996 53.0333
155 32.06 3 S 2.08432 14.3121 60.0068
156 32.06 3 S 4.1756 10.3929 57.3475
157 32.06 3 S 1.54031 9.89155 52.4084
158 32.06 3 S 4.35623 13.7492 50.9269
159 32.06 3 S 4.82837 14.1829 57.7596
160 32.06 3 S 1.38405 9.74346 58.9108
161 32.06 3 S 1.68 8.16697 49.6154
162 32.06 3 S 4.37656 15.3579 53.7227
163 32.06 3 S 4.79604 16.2259 60.3255
164 32.06 3 S 1.55377 9.33313 55.4668
165 32.06 3 S 4.45302 11.9995 53.7505
166 32.06 3 S 1.7005 11.6299 49.5878
167 32.06 3 S 1.53573 12.3361 56.7892
168 32.06 3 S 5.00425 12.9313 60.814
169 32.06 3 S 7.9317 13.7593 46.5198
170 32.06 3 S 10.1589 9.84678 43.8172
171 32.06 3 S 10.6884 13.8577 44.3753
172 32.06 3 S 7.3868 9.93927 45.9426
173 32.06 3 S 10.6339 15.531 47.1791
174 32.06 3 S 7.331 8.16678 43.2116
175 32.06 3 S 7.46217 11.6112 43.1364
176 32.06 3 S 10.7693 12.078 47.0942
177 32.06 3 S 10.8866 9.91695 50.2853
178 32.06 3 S 7.21644 13.6734 52.8912
179 32.06 3 S 8.06596 13.5125 59.9523
180 32.06 3 S 9.97017 10.2137 56.6341
181 32.06 3 S 7.53815 9.8499 52.3593
182 32.06 3 S 10.4018 13.7226 50.8896
183 32.06 3 S 10.2706 14.3898 57.5009
184 32.06 3 S 7.35321 10.0386 58.7037
185 32.06 3 S 7.61917 8.17427 49.5672
186 32.06 3 S 10.3345 15.2979 53.7329
187 32.06 3 S 10.8823 15.3589 60.5116
188 32.06 3 S 6.93022 9.2594 55.4265
189 32.06 3 S 10.4436 12.0245 53.8006
190 32.06 3 S 7.65189 11.6462 49.5656
191 32.06 3 S 7.36112 12.3494 56.3554
192 32.06 3 S 11.017 12.0417 59.8032
193 6.94 1 Li 2.32898 0.335733 41.2032
194 6.94 1 Li 3.64558 7.61642 36.8521
195 6.94 1 Li 3.84899 4.25179 36.9095
196 6.94 1 Li 2.50268 3.68898 41.2643
197 6.94 1 Li 5.73114 0.444779 38.9792
198 6.94 1 Li 0.44796 4.38536 39.1212
199 6.94 1 Li 8.31336 0.335733 41.2032
200 6.94 1 Li 9.62996 7.61642 36.8521
201 6.94 1 Li 9.83337 4.25179 36.9095
202 6.94 1 Li 8.48706 3.68898 41.2643
203 6.94 1 Li 11.7155 0.444779 38.9792
204 6.94 1 Li 6.43234 4.38536 39.1212
205 6.94 1 Li 2.30846 8.17338 41.2032
206 6.94 1 Li 3.62506 15.4541 36.8521
207 6.94 1 Li 3.82847 12.0894 36.9095
208 6.94 1 Li 2.48216 11.5266 41.2643
209 6.94 1 Li 5.71062 8.28242 38.9792
210 6.94 1 Li 0.427442 12.223 39.1212
211 6.94 1 Li 8.29284 8.17338 41.2032
212 6.94 1 Li 9.60944 15.4541 36.8521
213 6.94 1 Li 9.81285 12.0894 36.9095
214 6.94 1 Li 8.46654 11.5266 41.2643
215 6.94 1 Li 11.695 8.28242 38.9792
216 6.94 1 Li 6.41182 12.223 39.1212
217 30.9738 2 P 3.9999 5.95292 40.219
218 30.9738 2 P 2.16368 2.03769 37.9062
219 30.9738 2 P 9.98428 5.95292 40.219
220 30.9738 2 P 8.14806 2.03769 37.9062
221 30.9738 2 P 3.97938 13.7906 40.219
222 30.9738 2 P 2.14316 9.87533 37.9062
223 30.9738 2 P 9.96376 13.7906 40.219
224 30.9738 2 P 8.12754 9.87533 37.9062
225 32.06 3 S 1.96784 5.9217 40.4198
226 32.06 3 S 4.19508 2.00913 37.7172
227 32.06 3 S 4.72458 6.02005 38.2753
228 32.06 3 S 1.42294 2.10163 39.8426
229 32.06 3 S 4.67005 7.69336 41.0791
230 32.06 3 S 1.36713 0.329131 37.1116
231 32.06 3 S 1.49831 3.77357 37.0364
232 32.06 3 S 4.80544 4.24036 40.9942
233 32.06 3 S 7.95222 5.9217 40.4198
234 32.06 3 S 10.1795 2.00913 37.7172
235 32.06 3 S 10.709 6.02005 38.2753
236 32.06 3 S 7.40732 2.10163 39.8426
237 32.06 3 S 10.6544 7.69336 41.0791
238 32.06 3 S 7.35151 0.329131 37.1116
239 32.06 3 S 7.48269 3.77357 37.0364
240 32.06 3 S 10.7898 4.24036 40.9942
241 32.06 3 S 1.94732 13.7593 40.4198
242 32.06 3 S 4.17456 9.84678 37.7172
243 32.06 3 S 4.70407 13.8577 38.2753
244 32.06 3 S 1.40242 9.93927 39.8426
245 32.06 3 S 4.64954 15.531 41.0791
246 32.06 3 S 1.34661 8.16678 37.1116
247 32.06 3 S 1.47779 11.6112 37.0364
248 32.06 3 S 4.78493 12.078 40.9942
249 32.06 3 S 7.9317 13.7593 40.4198
250 32.06 3 S 10.1589 9.84678 37.7172
251 32.06 3 S 10.6884 13.8577 38.2753
252 32.06 3 S 7.3868 9.93927 39.8426
253 32.06 3 S 10.6339 15.531 41.0791
254 32.06 3 S 7.331 8.16678 37.1116
255 32.06 3 S 7.46217 11.6112 37.0364
256 32.06 3 S 10.7693 12.078 40.9942
257 6.94 1 Li 2.28794 16.011 47.3032
258 6.94 1 Li 3.60454 23.2917 42.9521
259 6.94 1 Li 3.80795 19.9271 43.0095
260 6.94 1 Li 2.46164 19.3643 47.3643
261 6.94 1 Li 5.6901 16.1201 45.0792
262 6.94 1 Li 0.406923 20.0607 45.2212
263 6.94 1 Li 0.605874 15.3385 58.424
264 6.94 1 Li 2.39534 22.7154 55.3487
265 6.94 1 Li 5.19181 23.3595 49.5224
266 6.94 1 Li 4.81764 12.3298 56.1628
267 6.94 1 Li 2.61858 15.4724 51.9582
268 6.94 1 Li 3.62788 18.1695 59.3322
269 6.94 1 Li 1.8764 19.7463 53.7535
270 6.94 1 Li 5.50899 20.0719 49.4103
271 6.94 1 Li -0.112287 17.0699 54.267
272 6.94 1 Li 6.54445 14.8267 61.1228
273 6.94 1 Li 3.56305 19.2853 51.5697
274 6.94 1 Li 0.76614 20.0831 58.326
275 6.94 1 Li 8.27232 16.011 47.3032
276 6.94 1 Li 9.58892 23.2917 42.9521
277 6.94 1 Li 9.79233 19.9271 43.0095
278 6.94 1 Li 8.44602 19.3643 47.3643
279 6.94 1 Li 11.6745 16.1201 45.0792
280 6.94 1 Li 6.3913 20.0607 45.2212
281 6.94 1 Li 10.1716 16.7364 58.5818
282 6.94 1 Li 8.09537 22.8663 55.0319
283 6.94 1 Li 11.227 23.3565 49.5086
284 6.94 1 Li 9.04803 13.8758 55.2314
285 6.94 1 Li 10.6872 19.8863 56.3317
286 6.94 1 Li 7.62953 19.857 58.2378
287 6.94 1 Li 7.84614 19.7126 53.7289
288 6.94 1 Li 11.4845 20.0372 49.4184
289 6.94 1 Li 8.68298 15.4816 51.8861
290 6.94 1 Li 7.74408 14.6012 57.8126
291 6.94 1 Li 9.53548 19.3225 51.5739
292 6.94 1 Li 4.84884 19.8777 56.5081
293 6.94 1 Li 2.26742 23.8487 47.3032
294 6.94 1 Li 3.58402 31.1294 42.9521
295 6.94 1 Li 3.78743 27.7647 43.0095
296 6.94 1 Li 2.44112 27.2019 47.3643
297 6.94 1 Li 5.66958 23.9577 45.0792
298 6.94 1 Li 0.386405 27.8983 45.2212
299 6.94 1 Li 0.686189 23.1169 58.9481
300 6.94 1 Li 5.94044 32.8694 54.1577
301 6.94 1 Li 5.24238 31.2108 49.5405
302 6.94 1 Li -0.953756 25.5599 52.6908
303 6.94 1 Li 3.48727 30.9487 56.0001
304 6.94 1 Li 3.66523 25.0455 59.462
305 6.94 1 Li 0.934249 27.3498 54.4437
306 6.94 1 Li 5.25685 27.8263 49.4316
307 6.94 1 Li 2.51399 23.3013 51.8422
308 6.94 1 Li 5.55721 24.0602 57.3939
309 6.94 1 Li 2.59187 27.7552 51.7903
310 6.94 1 Li 1.33853 27.8647 59.3597
311 6.94 1 Li 8.2518 23.8487 47.3032
312 6.94 1 Li 9.5684 31.1294 42.9521
313 6.94 1 Li 9.77181 27.7647 43.0095
314 6.94 1 Li 8.4255 27.2019 47.3643
315 6.94 1 Li 11.654 23.9577 45.0792
316 6.94 1 Li 6.37078 27.8983 45.2212
317 6.94 1 Li 7.58666 23.361 59.4078
318 6.94 1 Li 5.51593 32.1193 58.0335
319 6.94 1 Li 11.2394 31.2021 49.5282
320 6.94 1 Li 5.02595 25.4224 52.7234
321 6.94 1 Li 11.091 27.8498 57.3563
322 6.94 1 Li 9.81265 25.677 59.0764
323 6.94 1 Li 6.86316 27.1938 54.0931
324 6.94 1 Li 11.2885 27.8063 49.4081
325 6.94 1 Li 8.48904 23.2889 51.7359
326 6.94 1 Li 11.2178 24.1666 55.6942
327 6.94 1 Li 8.68754 27.7064 51.7185
328 6.94 1 Li 6.22413 27.9526 58.819
329 30.9738 2 P 3.95886 21.6282 46.319
330 30.9738 2 P 2.12264 17.713 44.0062
331 30.9738 2 P 1.02453 17.7575 50.5415
332 30.9738 2 P 5.03532 21.7056 52.9162
333 30.9738 2 P 4.17455 21.6841 58.8942
334 30.9738 2 P 1.88777 17.628 56.843
335 30.9738 2 P 9.94324 21.6282 46.319
336 30.9738 2 P 8.10702 17.713 44.0062
337 30.9738 2 P 7.03664 17.7724 50.4909
338 30.9738 2 P 11.024 21.7781 52.9774
339 30.9738 2 P 9.97233 21.9961 58.2879
340 30.9738 2 P 8.12726 17.3839 56.5058
341 30.9738 2 P 3.93834 29.4659 46.319
342 30.9738 2 P 2.10212 25.5506 44.0062
343 30.9738 2 P 0.939785 25.5864 50.4257
344 30.9738 2 P 5.14599 29.3895 52.8195
345 30.9738 2 P 4.02679 30.0515 59.7344
346 30.9738 2 P 2.09653 26.0842 57.1079
347 30.9738 2 P 9.92272 29.4659 46.319
348 30.9738 2 P 8.0865 25.5506 44.0062
349 30.9738 2 P 6.89983 25.5966 50.3908
350 30.9738 2 P 11.1488 29.3703 52.8125
351 30.9738 2 P 10.0044 29.5108 59.5129
352 30.9738 2 P 7.89836 26.0838 56.7664
353 32.06 3 S 1.9268 21.597 46.5198
354 32.06 3 S 4.15404 17.6844 43.8172
355 32.06 3 S 4.68354 21.6953 44.3753
356 32.06 3 S 1.3819 17.7769 45.9426
357 32.06 3 S 4.62901 23.3687 47.1791
358 32.06 3 S 1.32609 16.0044 43.2116
359 32.06 3 S 1.45727 19.4489 43.1364
360 32.06 3 S 4.7644 19.9157 47.0942
361 32.06 3 S 5.00099 17.8143 50.2736
362 32.06 3 S 1.06782 21.9182 53.2606
363 32.06 3 S 2.31507 21.4507 59.69
364 32.06 3 S 3.94439 17.6514 56.6209
365 32.06 3 S 1.64169 17.6802 52.5208
366 32.06 3 S 4.35512 21.6182 50.9593
367 32.06 3 S 4.19886 22.148 56.8749
368 32.06 3 S 1.30856 17.7136 58.8023
369 32.06 3 S 1.70383 16.014 49.7046
370 32.06 3 S 4.18401 23.3742 53.7488
371 32.06 3 S 5.14862 23.2363 59.8543
372 32.06 3 S 1.21462 15.9039 55.9988
373 32.06 3 S 4.35297 19.996 53.8239
374 32.06 3 S 1.83718 19.4583 49.7441
375 32.06 3 S 1.15637 19.3254 55.9583
376 32.06 3 S 5.26908 19.9629 59.137
377 32.06 3 S 7.91118 21.597 46.5198
378 32.06 3 S 10.1385 17.6844 43.8172
379 32.06 3 S 10.668 21.6953 44.3753
380 32.06 3 S 7.36628 17.7769 45.9426
381 32.06 3 S 10.6134 23.3687 47.1791
382 32.06 3 S 7.31047 16.0044 43.2116
383 32.06 3 S 7.44165 19.4489 43.1364
384 32.06 3 S 10.7488 19.9157 47.0942
385 32.06 3 S 10.9591 17.7983 50.2995
386 32.06 3 S 7.07402 21.7934 53.0527
387 32.06 3 S 8.12557 22.1839 57.3962
388 32.06 3 S 10.1226 17.5688 56.194
389 32.06 3 S 7.70392 17.6822 52.4503
390 32.06 3 S 10.4103 21.6508 51.004
391 32.06 3 S 11.5339 22.2328 56.9613
392 32.06 3 S 7.79392 17.2484 58.5357
393 32.06 3 S 7.68969 16.0172 49.6597
394 32.06 3 S 10.0956 23.4954 53.6911
395 32.06 3 S 10.1472 23.3015 59.8497
396 32.06 3 S 7.28868 15.7415 55.6344
397 32.06 3 S 10.2823 20.098 53.8768
398 32.06 3 S 7.83901 19.4833 49.7054
399 32.06 3 S 7.10627 19.039 55.8326
400 32.06 3 S 10.1502 20.0673 58.8876
401 32.06 3 S 1.90628 29.4346 46.5198
402 32.06 3 S 4.13352 25.5221 43.8172
403 32.06 3 S 4.66303 29.533 44.3753
404 32.06 3 S 1.36138 25.6146 45.9426
405 32.06 3 S 4.6085 31.2063 47.1791
406 32.06 3 S 1.30557 23.8421 43.2116
407 32.06 3 S 1.43675 27.2865 43.1364
408 32.06 3 S 4.74389 27.7533 47.0942
409 32.06 3 S 4.83987 25.6035 50.3034
410 32.06 3 S 1.19726 29.3748 53.0333
411 32.06 3 S 2.04328 29.9874 60.0068
412 32.06 3 S 4.13457 26.0682 57.3475
413 32.06 3 S 1.49928 25.5668 52.4084
414 32.06 3 S 4.3152 29.4245 50.9269
415 32.06 3 S 4.78733 29.8582 57.7596
416 32.06 3 S 1.34301 25.4188 58.9108
417 32.06 3 S 1.63896 23.8423 49.6154
418 32.06 3 S 4.33552 31.0332 53.7227
419 32.06 3 S 4.755 31.9012 60.3255
420 32.06 3 S 1.51274 25.0084 55.4668
421 32.06 3 S 4.41199 27.6748 53.7505
422 32.06 3 S 1.65946 27.3052 49.5878
423 32.06 3 S 1.49469 28.0114 56.7892
424 32.06 3 S 4.96321 28.6066 60.814
425 32.06 3 S 7.89066 29.4346 46.5198
426 32.06 3 S 10.1179 25.5221 43.8172
427 32.06 3 S 10.6474 29.533 44.3753
428 32.06 3 S 7.34576 25.6146 45.9426
429 32.06 3 S 10.5929 31.2063 47.1791
430 32.06 3 S 7.28996 23.8421 43.2116
431 32.06 3 S 7.42113 27.2865 43.1364
432 32.06 3 S 10.7283 27.7533 47.0942
433 32.06 3 S 10.8455 25.5922 50.2853
434 32.06 3 S 7.1754 29.3487 52.8912
435 32.06 3 S 8.02492 29.1878 59.9523
436 32.06 3 S 9.92914 25.889 56.6341
437 32.06 3 S 7.49711 25.5252 52.3593
438 32.06 3 S 10.3608 29.3979 50.8896
439 32.06 3 S 10.2295 30.0651 57.5009
440 32.06 3 S 7.31217 25.7139 58.7037
441 32.06 3 S 7.57814 23.8496 49.5672
442 32.06 3 S 10.2934 30.9732 53.7329
443 32.06 3 S 10.8413 31.0342 60.5116
444 32.06 3 S 6.88919 24.9347 55.4265
445 32.06 3 S 10.4026 27.6998 53.8006
446 32.06 3 S 7.61085 27.3215 49.5656
447 32.06 3 S 7.32008 28.0247 56.3554
448 32.06 3 S 10.976 27.717 59.8032
449 6.94 1 Li 2.28794 16.011 41.2032
450 6.94 1 Li 3.60454 23.2917 36.8521
451 6.94 1 Li 3.80795 19.9271 36.9095
452 6.94 1 Li 2.46164 19.3643 41.2643
453 6.94 1 Li 5.6901 16.1201 38.9792
454 6.94 1 Li 0.406923 20.0607 39.1212
455 6.94 1 Li 8.27232 16.011 41.2032
456 6.94 1 Li 9.58892 23.2917 36.8521
457 6.94 1 Li 9.79233 19.9271 36.9095
458 6.94 1 Li 8.44602 19.3643 41.2643
459 6.94 1 Li 11.6745 16.1201 38.9792
460 6.94 1 Li 6.3913 20.0607 39.1212
461 6.94 1 Li 2.26742 23.8487 41.2032
462 6.94 1 Li 3.58402 31.1294 36.8521
463 6.94 1 Li 3.78743 27.7647 36.9095
464 6.94 1 Li 2.44112 27.2019 41.2643
465 6.94 1 Li 5.66958 23.9577 38.9792
466 6.94 1 Li 0.386405 27.8983 39.1212
467 6.94 1 Li 8.2518 23.8487 41.2032
468 6.94 1 Li 9.5684 31.1294 36.8521
469 6.94 1 Li 9.77181 27.7647 36.9095
470 6.94 1 Li 8.4255 27.2019 41.2643
471 6.94 1 Li 11.654 23.9577 38.9792
472 6.94 1 Li 6.37078 27.8983 39.1212
473 30.9738 2 P 3.95886 21.6282 40.219
474 30.9738 2 P 2.12264 17.713 37.9062
475 30.9738 2 P 9.94324 21.6282 40.219
476 30.9738 2 P 8.10702 17.713 37.9062
477 30.9738 2 P 3.93834 29.4659 40.219
478 30.9738 2 P 2.10212 25.5506 37.9062
479 30.9738 2 P 9.92272 29.4659 40.219
480 30.9738 2 P 8.0865 25.5506 37.9062
481 32.06 3 S 1.9268 21.597 40.4198
482 32.06 3 S 4.15404 17.6844 37.7172
483 32.06 3 S 4.68354 21.6953 38.2753
484 32.06 3 S 1.3819 17.7769 39.8426
485 32.06 3 S 4.62901 23.3687 41.0791
486 32.06 3 S 1.32609 16.0044 37.1116
487 32.06 3 S 1.45727 19.4489 37.0364
488 32.06 3 S 4.7644 19.9157 40.9942
489 32.06 3 S 7.91118 21.597 40.4198
490 32.06 3 S 10.1385 17.6844 37.7172
491 32.06 3 S 10.668 21.6953 38.2753
492 32.06 3 S 7.36628 17.7769 39.8426
493 32.06 3 S 10.6134 23.3687 41.0791
494 32.06 3 S 7.31047 16.0044 37.1116
495 32.06 3 S 7.44165 19.4489 37.0364
496 32.06 3 S 10.7488 19.9157 40.9942
497 32.06 3 S 1.90628 29.4346 40.4198
498 32.06 3 S 4.13352 25.5221 37.7172
499 32.06 3 S 4.66303 29.533 38.2753
500 32.06 3 S 1.36138 25.6146 39.8426
501 32.06 3 S 4.6085 31.2063 41.0791
502 32.06 3 S 1.30557 23.8421 37.1116
503 32.06 3 S 1.43675 27.2865 37.0364
504 32.06 3 S 4.74389 27.7533 40.9942
505 32.06 3 S 7.89066 29.4346 40.4198
506 32.06 3 S 10.1179 25.5221 37.7172
507 32.06 3 S 10.6474 29.533 38.2753
508 32.06 3 S 7.34576 25.6146 39.8426
509 32.06 3 S 10.5929 31.2063 41.0791
510 32.06 3 S 7.28996 23.8421 37.1116
511 32.06 3 S 7.42113 27.2865 37.0364
512 32.06 3 S 10.7283 27.7533 40.9942
513 6.94 1 Li 14.2977 0.335733 47.3032
514 6.94 1 Li 15.6143 7.61642 42.9521
515 6.94 1 Li 15.8178 4.25179 43.0095
516 6.94 1 Li 14.4714 3.68898 47.3643
517 6.94 1 Li 17.6999 0.444779 45.0792
518 6.94 1 Li 12.4167 4.38536 45.2212
519 6.94 1 Li 12.6157 -0.336803 58.424
520 6.94 1 Li 14.4051 7.04011 55.3487
521 6.94 1 Li 17.2016 7.6842 49.5224
522 6.94 1 Li 16.8274 -3.34548 56.1628
523 6.94 1 Li 14.6284 -0.202895 51.9582
524 6.94 1 Li 15.6377 2.49423 59.3322
525 6.94 1 Li 13.8862 4.07103 53.7535
526 6.94 1 Li 17.5188 4.39664 49.4103
527 6.94 1 Li 11.8975 1.39464 54.267
528 6.94 1 Li 18.5542 -0.848619 61.1228
529 6.94 1 Li 15.5729 3.60998 51.5697
530 6.94 1 Li 12.7759 4.40776 58.326
531 6.94 1 Li 20.2821 0.335733 47.3032
532 6.94 1 Li 21.5987 7.61642 42.9521
533 6.94 1 Li 21.8021 4.25179 43.0095
534 6.94 1 Li 20.4558 3.68898 47.3643
535 6.94 1 Li 23.6843 0.444779 45.0792
536 6.94 1 Li 18.4011 4.38536 45.2212
537 6.94 1 Li 22.1814 1.06107 58.5818
538 6.94 1 Li 20.1052 7.19103 55.0319
539 6.94 1 Li 23.2368 7.68119 49.5086
540 6.94 1 Li 21.0578 -1.79947 55.2314
541 6.94 1 Li 22.697 4.21102 56.3317
542 6.94 1 Li 19.6393 4.18166 58.2378
543 6.94 1 Li 19.8559 4.03728 53.7289
544 6.94 1 Li 23.4943 4.36192 49.4184
545 6.94 1 Li 20.6928 -0.193685 51.8861
546 6.94 1 Li 19.7539 -1.07413 57.8126
547 6.94 1 Li 21.5453 3.64718 51.5739
548 6.94 1 Li 16.8586 4.20236 56.5081
549 6.94 1 Li 14.2772 8.17338 47.3032
550 6.94 1 Li 15.5938 15.4541 42.9521
551 6.94 1 Li 15.7972 12.0894 43.0095
552 6.94 1 Li 14.4509 11.5266 47.3643
553 6.94 1 Li 17.6794 8.28242 45.0792
554 6.94 1 Li 12.3962 12.223 45.2212
555 6.94 1 Li 12.696 7.44164 58.9481
556 6.94 1 Li 17.9502 17.1941 54.1577
557 6.94 1 Li 17.2522 15.5355 49.5405
558 6.94 1 Li 11.056 9.88463 52.6908
559 6.94 1 Li 15.4971 15.2734 56.0001
560 6.94 1 Li 15.675 9.37019 59.462
561 6.94 1 Li 12.944 11.6745 54.4437
562 6.94 1 Li 17.2666 12.151 49.4316
563 6.94 1 Li 14.5238 7.626 51.8422
564 6.94 1 Li 17.567 8.38487 57.3939
565 6.94 1 Li 14.6017 12.0799 51.7903
566 6.94 1 Li 13.3483 12.1894 59.3597
567 6.94 1 Li 20.2616 8.17338 47.3032
568 6.94 1 Li 21.5782 15.4541 42.9521
569 6.94 1 Li 21.7816 12.0894 43.0095
570 6.94 1 Li 20.4353 11.5266 47.3643
571 6.94 1 Li 23.6638 8.28242 45.0792
572 6.94 1 Li 18.3806 12.223 45.2212
573 6.94 1 Li 19.5965 7.68574 59.4078
574 6.94 1 Li 17.5257 16.4441 58.0335
575 6.94 1 Li 23.2492 15.5268 49.5282
576 6.94 1 Li 17.0357 9.74716 52.7234
577 6.94 1 Li 23.1008 12.1745 57.3563
578 6.94 1 Li 21.8225 10.0017 59.0764
579 6.94 1 Li 18.873 11.5185 54.0931
580 6.94 1 Li 23.2983 12.131 49.4081
581 6.94 1 Li 20.4988 7.61362 51.7359
582 6.94 1 Li 23.2276 8.49132 55.6942
583 6.94 1 Li 20.6973 12.0311 51.7185
584 6.94 1 Li 18.2339 12.2773 58.819
585 30.9738 2 P 15.9687 5.95292 46.319
586 30.9738 2 P 14.1324 2.03769 44.0062
587 30.9738 2 P 13.0343 2.08223 50.5415
588 30.9738 2 P 17.0451 6.03028 52.9162
589 30.9738 2 P 16.1844 6.0088 58.8942
590 30.9738 2 P 13.8976 1.95273 56.843
591 30.9738 2 P 21.953 5.95292 46.319
592 30.9738 2 P 20.1168 2.03769 44.0062
593 30.9738 2 P 19.0464 2.09713 50.4909
594 30.9738 2 P 23.0338 6.10283 52.9774
595 30.9738 2 P 21.9821 6.32079 58.2879
596 30.9738 2 P 20.1371 1.70857 56.5058
597 30.9738 2 P 15.9481 13.7906 46.319
598 30.9738 2 P 14.1119 9.87533 44.0062
599 30.9738 2 P 12.9496 9.91109 50.4257
600 30.9738 2 P 17.1558 13.7142 52.8195
601 30.9738 2 P 16.0366 14.3762 59.7344
602 30.9738 2 P 14.1063 10.409 57.1079
603 30.9738 2 P 21.9325 13.7906 46.319
604 30.9738 2 P 20.0963 9.87533 44.0062
605 30.9738 2 P 18.9096 9.92129 50.3908
606 30.9738 2 P 23.1586 13.695 52.8125
607 30.9738 2 P 22.0142 13.8355 59.5129
608 30.9738 2 P 19.9082 10.4085 56.7664
609 32.06 3 S 13.9366 5.9217 46.5198
610 32.06 3 S 16.1638 2.00913 43.8172
611 32.06 3 S 16.6933 6.02005 44.3753
612 32.06 3 S 13.3917 2.10163 45.9426
613 32.06 3 S 16.6388 7.69336 47.1791
614 32.06 3 S 13.3359 0.329131 43.2116
615 32.06 3 S 13.4671 3.77357 43.1364
616 32.06 3 S 16.7742 4.24036 47.0942
617 32.06 3 S 17.0108 2.13905 50.2736
618 32.06 3 S 13.0776 6.24289 53.2606
619 32.06 3 S 14.3249 5.77544 59.69
620 32.06 3 S 15.9542 1.97612 56.6209
621 32.06 3 S 13.6515 2.00489 52.5208
622 32.06 3 S 16.3649 5.94293 50.9593
623 32.06 3 S 16.2087 6.47274 56.8749
624 32.06 3 S 13.3184 2.03836 58.8023
625 32.06 3 S 13.7136 0.338748 49.7046
626 32.06 3 S 16.1938 7.6989 53.7488
627 32.06 3 S 17.1584 7.56105 59.8543
628 32.06 3 S 13.2244 0.228574 55.9988
629 32.06 3 S 16.3628 4.3207 53.8239
630 32.06 3 S 13.847 3.78303 49.7441
631 32.06 3 S 13.1662 3.65006 55.9583
632 32.06 3 S 17.2789 4.28762 59.137
633 32.06 3 S 19.921 5.9217 46.5198
634 32.06 3 S 22.1483 2.00913 43.8172
635 32.06 3 S 22.6778 6.02005 44.3753
636 32.06 3 S 19.3761 2.10163 45.9426
637 32.06 3 S 22.6232 7.69336 47.1791
638 32.06 3 S 19.3203 0.329131 43.2116
639 32.06 3 S 19.4515 3.77357 43.1364
640 32.06 3 S 22.7586 4.24036 47.0942
641 32.06 3 S 22.9689 2.12303 50.2995
642 32.06 3 S 19.0838 6.11808 53.0527
643 32.06 3 S 20.1354 6.50865 57.3962
644 32.06 3 S 22.1324 1.89354 56.194
645 32.06 3 S 19.7137 2.00696 52.4503
646 32.06 3 S 22.4201 5.97549 51.004
647 32.06 3 S 23.5437 6.55753 56.9613
648 32.06 3 S 19.8037 1.57309 58.5357
649 32.06 3 S 19.6995 0.341922 49.6597
650 32.06 3 S 22.1054 7.8201 53.6911
651 32.06 3 S 22.157 7.62621 59.8497
652 32.06 3 S 19.2985 0.0662476 55.6344
653 32.06 3 S 22.2921 4.42274 53.8768
654 32.06 3 S 19.8488 3.80799 49.7054
655 32.06 3 S 19.1161 3.3637 55.8326
656 32.06 3 S 22.16 4.39203 58.8876
657 32.06 3 S 13.9161 13.7593 46.5198
658 32.06 3 S 16.1433 9.84678 43.8172
659 32.06 3 S 16.6728 13.8577 44.3753
660 32.06 3 S 13.3712 9.93927 45.9426
661 32.06 3 S 16.6183 15.531 47.1791
662 32.06 3 S 13.3154 8.16678 43.2116
663 32.06 3 S 13.4466 11.6112 43.1364
664 32.06 3 S 16.7537 12.078 47.0942
665 32.06 3 S 16.8497 9.92816 50.3034
666 32.06 3 S 13.2071 13.6996 53.0333
667 32.06 3 S 14.0531 14.3121 60.0068
668 32.06 3 S 16.1444 10.3929 57.3475
669 32.06 3 S 13.5091 9.89155 52.4084
670 32.06 3 S 16.325 13.7492 50.9269
671 32.06 3 S 16.7971 14.1829 57.7596
672 32.06 3 S 13.3528 9.74346 58.9108
673 32.06 3 S 13.6488 8.16697 49.6154
674 32.06 3 S 16.3453 15.3579 53.7227
675 32.06 3 S 16.7648 16.2259 60.3255
676 32.06 3 S 13.5225 9.33313 55.4668
677 32.06 3 S 16.4218 11.9995 53.7505
678 32.06 3 S 13.6693 11.6299 49.5878
679 32.06 3 S 13.5045 12.3361 56.7892
680 32.06 3 S 16.973 12.9313 60.814
681 32.06 3 S 19.9005 13.7593 46.5198
682 32.06 3 S 22.1277 9.84678 43.8172
683 32.06 3 S 22.6572 13.8577 44.3753
684 32.06 3 S 19.3556 9.93927 45.9426
685 32.06 3 S 22.6027 15.531 47.1791
686 32.06 3 S 19.2998 8.16678 43.2116
687 32.06 3 S 19.4309 11.6112 43.1364
688 32.06 3 S 22.7381 12.078 47.0942
689 32.06 3 S 22.8553 9.91695 50.2853
690 32.06 3 S 19.1852 13.6734 52.8912
691 32.06 3 S 20.0347 13.5125 59.9523
692 32.06 3 S 21.9389 10.2137 56.6341
693 32.06 3 S 19.5069 9.8499 52.3593
694 32.06 3 S 22.3706 13.7226 50.8896
695 32.06 3 S 22.2393 14.3898 57.5009
696 32.06 3 S 19.322 10.0386 58.7037
697 32.06 3 S 19.5879 8.17427 49.5672
698 32.06 3 S 22.3032 15.2979 53.7329
699 32.06 3 S 22.8511 15.3589 60.5116
700 32.06 3 S 18.899 9.2594 55.4265
701 32.06 3 S 22.4124 12.0245 53.8006
702 32.06 3 S 19.6206 11.6462 49.5656
703 32.06 3 S 19.3299 12.3494 56.3554
704 32.06 3 S 22.9858 12.0417 59.8032
705 6.94 1 Li 14.2977 0.335733 41.2032
706 6.94 1 Li 15.6143 7.61642 36.8521
707 6.94 1 Li 15.8178 4.25179 36.9095
708 6.94 1 Li 14.4714 3.68898 41.2643
709 6.94 1 Li 17.6999 0.444779 38.9792
710 6.94 1 Li 12.4167 4.38536 39.1212
711 6.94 1 Li 20.2821 0.335733 41.2032
712 6.94 1 Li 21.5987 7.61642 36.8521
713 6.94 1 Li 21.8021 4.25179 36.9095
714 6.94 1 Li 20.4558 3.68898 41.2643
715 6.94 1 Li 23.6843 0.444779 38.9792
716 6.94 1 Li 18.4011 4.38536 39.1212
717 6.94 1 Li 14.2772 8.17338 41.2032
718 6.94 1 Li 15.5938 15.4541 36.8521
719 6.94 1 Li 15.7972 12.0894 36.9095
720 6.94 1 Li 14.4509 11.5266 41.2643
721 6.94 1 Li 17.6794 8.28242 38.9792
722 6.94 1 Li 12.3962 12.223 39.1212
723 6.94 1 Li 20.2616 8.17338 41.2032
724 6.94 1 Li 21.5782 15.4541 36.8521
725 6.94 1 Li 21.7816 12.0894 36.9095
726 6.94 1 Li 20.4353 11.5266 41.2643
727 6.94 1 Li 23.6638 8.28242 38.9792
728 6.94 1 Li 18.3806 12.223 39.1212
729 30.9738 2 P 15.9687 5.95292 40.219
730 30.9738 2 P 14.1324 2.03769 37.9062
731 30.9738 2 P 21.953 5.95292 40.219
732 30.9738 2 P 20.1168 2.03769 37.9062
733 30.9738 2 P 15.9481 13.7906 40.219
734 30.9738 2 P 14.1119 9.87533 37.9062
735 30.9738 2 P 21.9325 13.7906 40.219
736 30.9738 2 P 20.0963 9.87533 37.9062
737 32.06 3 S 13.9366 5.9217 40.4198
738 32.06 3 S 16.1638 2.00913 37.7172
739 32.06 3 S 16.6933 6.02005 38.2753
740 32.06 3 S 13.3917 2.10163 39.8426
741 32.06 3 S 16.6388 7.69336 41.0791
742 32.06 3 S 13.3359 0.329131 37.1116
743 32.06 3 S 13.4671 3.77357 37.0364
744 32.06 3 S 16.7742 4.24036 40.9942
745 32.06 3 S 19.921 5.9217 40.4198
746 32.06 3 S 22.1483 2.00913 37.7172
747 32.06 3 S 22.6778 6.02005 38.2753
748 32.06 3 S 19.3761 2.10163 39.8426
749 32.06 3 S 22.6232 7.69336 41.0791
750 32.06 3 S 19.3203 0.329131 37.1116
751 32.06 3 S 19.4515 3.77357 37.0364
752 32.06 3 S 22.7586 4.24036 40.9942
753 32.06 3 S 13.9161 13.7593 40.4198
754 32.06 3 S 16.1433 9.84678 37.7172
755 32.06 3 S 16.6728 13.8577 38.2753
756 32.06 3 S 13.3712 9.93927 39.8426
757 32.06 3 S 16.6183 15.531 41.0791
758 32.06 3 S 13.3154 8.16678 37.1116
759 32.06 3 S 13.4466 11.6112 37.0364
760 32.06 3 S 16.7537 12.078 40.9942
761 32.06 3 S 19.9005 13.7593 40.4198
762 32.06 3 S 22.1277 9.84678 37.7172
763 32.06 3 S 22.6572 13.8577 38.2753
764 32.06 3 S 19.3556 9.93927 39.8426
765 32.06 3 S 22.6027 15.531 41.0791
766 32.06 3 S 19.2998 8.16678 37.1116
767 32.06 3 S 19.4309 11.6112 37.0364
768 32.06 3 S 22.7381 12.078 40.9942
769 6.94 1 Li 14.2567 16.011 47.3032
770 6.94 1 Li 15.5733 23.2917 42.9521
771 6.94 1 Li 15.7767 19.9271 43.0095
772 6.94 1 Li 14.4304 19.3643 47.3643
773 6.94 1 Li 17.6589 16.1201 45.0792
774 6.94 1 Li 12.3757 20.0607 45.2212
775 6.94 1 Li 12.5746 15.3385 58.424
776 6.94 1 Li 14.3641 22.7154 55.3487
777 6.94 1 Li 17.1606 23.3595 49.5224
778 6.94 1 Li 16.7864 12.3298 56.1628
779 6.94 1 Li 14.5873 15.4724 51.9582
780 6.94 1 Li 15.5966 18.1695 59.3322
781 6.94 1 Li 13.8452 19.7463 53.7535
782 6.94 1 Li 17.4778 20.0719 49.4103